#     Step Nr.          Time[fs]        Kin.[a.u.]          Temp[K]            Pot.[a.u.]        Cons Qty[a.u.]        UsedTime[s]
         0            0.000000         0.414694469       873.000000000     -2253.830397669     -2253.414280725         0.000000000
         1            0.500000         0.913195729      1922.427065024     -2254.363511249     -2253.441556723       433.116728572
         2            1.000000         2.003815710      4218.361335812     -2255.508073043     -2253.482507969       214.530760277
         3            1.500000         3.109621853      6546.264971788     -2256.657066513     -2253.495294855       218.139547709
         4            2.000000         3.956618009      8329.331057196     -2257.525605990     -2253.488436909       213.894794272
         5            2.500000         4.489775044      9451.714225364     -2258.129617420     -2253.479517454       216.968084261
         6            3.000000         4.867709711     10247.328801321     -2258.558271539     -2253.473371541       216.423998268
         7            3.500000         5.159009444     10860.562605634     -2258.878314289     -2253.470123335       215.757133838
         8            4.000000         5.384343026     11334.926821120     -2259.134018295     -2253.468175138       219.251432406
         9            4.500000         5.544329854     11671.725382759     -2259.348902922     -2253.466443988       216.553191612
        10            5.000000         5.672054951     11940.607700234     -2259.539457939     -2253.465134601       176.904762471
        11            5.500000         5.797779280     12205.278071273     -2259.715589137     -2253.465005970       214.348786810
        12            6.000000         5.948318815     12522.188529661     -2259.880630974     -2253.465380656       215.711599471
        13            6.500000         6.049668368     12735.545991508     -2260.037611510     -2253.465652175       218.184592552
        14            7.000000         6.117753943     12878.877314758     -2260.187824784     -2253.465269475       182.417707084
        15            7.500000         6.182287816     13014.731721242     -2260.331433939     -2253.465116028       216.618757010
        16            8.000000         6.257683568     13173.452168211     -2260.465026146     -2253.465108211       211.546195876
        17            8.500000         6.330385066     13326.500767679     -2260.587392761     -2253.465420282       216.052344317
        18            9.000000         6.403979976     13481.430147495     -2260.697724807     -2253.466111424       214.743205629
        19            9.500000         6.415082772     13504.803357612     -2260.792082385     -2253.466466411       213.936320089
        20           10.000000         6.431092689     13538.506863443     -2260.866140820     -2253.465906190       217.364038033
        21           10.500000         6.420419698     13516.038464179     -2260.919092392     -2253.466518288       213.192485588
        22           11.000000         6.424696522     13525.041880191     -2260.946675294     -2253.466868491       216.733972114
        23           11.500000         6.380556694     13432.120289769     -2260.951044344     -2253.466209944       216.833807951
        24           12.000000         6.320594356     13305.889715901     -2260.949831364     -2253.463788470       219.863211000
        25           12.500000         6.268707772     13196.659930991     -2260.974058710     -2253.460878838       215.101909649
        26           13.000000         6.275010853     13209.928950648     -2261.052171253     -2253.460834198       221.134113127
        27           13.500000         6.361707478     13392.439593224     -2261.184923186     -2253.463912779       171.289905138
        28           14.000000         6.463317143     13606.344634774     -2261.341708233     -2253.466921298       174.765184319
        29           14.500000         6.566020517     13822.552113194     -2261.486165721     -2253.467338217        92.591988001
        30           15.000000         6.622815845     13942.115611045     -2261.601563803     -2253.466945880       104.650268361
        31           15.500000         6.634290331     13966.271289944     -2261.689595502     -2253.467415618       109.618305624
        32           16.000000         6.626541740     13949.959230823     -2261.753118884     -2253.466248267        51.929802682
        33           16.500000         6.605874341     13906.450961650     -2261.799497174     -2253.465786925        56.235188203
        34           17.000000         6.560132786     13810.157471724     -2261.830215302     -2253.465769615       223.113933552
        35           17.500000         6.512418754     13709.711594098     -2261.847868535     -2253.466138493       214.646820139
        36           18.000000         6.442418167     13562.348855715     -2261.853983475     -2253.467480460       223.498064745
        37           18.500000         6.354603391     13377.484322856     -2261.847183273     -2253.469196541       218.984262669
        38           19.000000         6.280512720     13221.511286388     -2261.822518997     -2253.469129754       214.346464066
        39           19.500000         6.170195183     12989.274743443     -2261.776673507     -2253.469398190       215.166768624
        40           20.000000         6.034084354     12702.739081190     -2261.709821310     -2253.468262020       218.799666446
        41           20.500000         5.905349832     12431.731759302     -2261.638163349     -2253.467550123       174.885065969
        42           21.000000         5.787137851     12182.876115077     -2261.579896879     -2253.466451522       219.435985215
        43           21.500000         5.699636201     11998.670763759     -2261.551306004     -2253.464833447       131.518041130
        44           22.000000         5.645574830     11884.862695089     -2261.565118519     -2253.466299781       169.736770971
        45           22.500000         5.633013805     11858.419673105     -2261.611587479     -2253.467633028       138.531053616
        46           23.000000         5.598906115     11786.617381274     -2261.673520525     -2253.469236027        90.358426934
        47           23.500000         5.624042511     11839.533625340     -2261.732062500     -2253.470201059        60.424851786
        48           24.000000         5.571498215     11728.919248396     -2261.772718491     -2253.469667956        60.440057127
        49           24.500000         5.531961367     11645.687686327     -2261.794485587     -2253.469925920        61.515851464
        50           25.000000         5.495661296     11569.270072524     -2261.794930241     -2253.469748241        84.520715160
        51           25.500000         5.415678867     11400.893915819     -2261.777456552     -2253.469400235       125.715063008
        52           26.000000         5.345502331     11253.160776335     -2261.748297917     -2253.469239020       119.988467632
        53           26.500000         5.241503611     11034.226381162     -2261.717269544     -2253.469055384       216.632489406
        54           27.000000         5.138039039     10816.416456801     -2261.688786889     -2253.469264806       217.044095017
        55           27.500000         5.066719737     10666.277606293     -2261.668809333     -2253.468404811       213.579072211
        56           28.000000         5.022780862     10573.779054301     -2261.660651060     -2253.468508569       217.122704884
        57           28.500000         4.982855667     10489.729958960     -2261.663836304     -2253.468716369       213.809092892
        58           29.000000         4.950285898     10421.165243241     -2261.678549505     -2253.468104714       211.966512166
        59           29.500000         4.921272360     10360.086977999     -2261.713449771     -2253.468523511       213.472266130
        60           30.000000         4.924101001     10366.041731871     -2261.769898732     -2253.469336167       218.213001482
        61           30.500000         4.955380037     10431.889243636     -2261.840436693     -2253.468867540       209.282186950
        62           31.000000         4.993777179     10512.721535684     -2261.924499429     -2253.468797173       215.394396242
        63           31.500000         5.034597773     10598.655595049     -2262.017253081     -2253.470008768        91.192492122
        64           32.000000         5.068312471     10669.630572497     -2262.107997801     -2253.470414974       165.287850304
        65           32.500000         5.086485142     10707.887031669     -2262.190321900     -2253.469642458        87.670854891
        66           33.000000         5.123648226     10786.121430925     -2262.265808112     -2253.469786693       101.578901432
        67           33.500000         5.150890545     10843.470987279     -2262.332292362     -2253.469985758        46.822379166
        68           34.000000         5.176734715     10897.877212147     -2262.391901195     -2253.470226474       129.082783835
        69           34.500000         5.177587826     10899.673152370     -2262.443025266     -2253.469586874        86.656707479
        70           35.000000         5.164618568     10872.370731989     -2262.486845397     -2253.469339540        97.214148300
        71           35.500000         5.136031552     10812.190366176     -2262.526468699     -2253.470128837        67.951668747
        72           36.000000         5.101736187     10739.992987130     -2262.558141848     -2253.469586008        92.666059492
        73           36.500000         5.062512501     10657.420683467     -2262.582393602     -2253.468358828       218.330706581
        74           37.000000         5.031754973     10592.671032480     -2262.603199319     -2253.468963167       190.140557652
        75           37.500000         4.984134871     10492.422893067     -2262.615627343     -2253.469228941       194.575383477
        76           38.000000         4.919993174     10357.394080761     -2262.622277621     -2253.470016188       217.216304516
        77           38.500000         4.888884371     10291.904939819     -2262.623727836     -2253.470032778       130.689948330
        78           39.000000         4.826448143     10160.466419236     -2262.623007173     -2253.469429198        86.491914181
        79           39.500000         4.764227752     10029.482272086     -2262.625499233     -2253.469845911        57.926074730
        80           40.000000         4.735920504      9969.890864093     -2262.634209758     -2253.468421930        45.749220399
        81           40.500000         4.717227350      9930.538703743     -2262.657587971     -2253.467224649        43.779889259
        82           41.000000         4.690549350      9874.377130437     -2262.697499386     -2253.466574056        84.448416362
        83           41.500000         4.700189715      9894.671682635     -2262.756818412     -2253.467308259        40.976016158
        84           42.000000         4.710941122      9917.305160888     -2262.828309932     -2253.467940647        56.891178600
        85           42.500000         4.737029722      9972.225950238     -2262.905283839     -2253.470117643        53.575026961
        86           43.000000         4.768868857     10039.252561221     -2262.978353241     -2253.470122703        52.126003796
        87           43.500000         4.775957217     10054.174723808     -2263.042658559     -2253.471299063        40.029598869
        88           44.000000         4.754836997     10009.713190957     -2263.092953667     -2253.470486490        54.837857548
        89           44.500000         4.709488417      9914.246977933     -2263.132058115     -2253.469810123        39.877694553
        90           45.000000         4.709734705      9914.765454948     -2263.162601763     -2253.469311723        58.654179964
        91           45.500000         4.669301630      9829.647188258     -2263.182834058     -2253.469923505        41.117808925
        92           46.000000         4.623103040      9732.391565038     -2263.195027800     -2253.470500252        58.201484244
        93           46.500000         4.563801478      9607.552032463     -2263.198216765     -2253.470131778        44.143859867
        94           47.000000         4.509248950      9492.709997331     -2263.194396555     -2253.469171248        52.301667780
        95           47.500000         4.437122852      9340.872707815     -2263.186903890     -2253.468940881        42.112870304
        96           48.000000         4.392291163      9246.494636938     -2263.172882628     -2253.468590431        49.647563217
        97           48.500000         4.322441137      9099.448853974     -2263.156761995     -2253.469291554        39.914885916
        98           49.000000         4.258553767      8964.955441650     -2263.137896144     -2253.468640977        41.399878373
        99           49.500000         4.197783837      8837.024754866     -2263.120729440     -2253.468718762        38.136146983
       100           50.000000         4.095166169      8620.997701405     -2263.108469306     -2253.469196936        38.389423851
       101           50.500000         4.060156068      8547.295686090     -2263.100558894     -2253.469060352        33.360784190
       102           51.000000         4.024806998      8472.880084223     -2263.097698410     -2253.469542072        41.109405303
       103           51.500000         4.004356774      8429.829002958     -2263.100366761     -2253.469326741        32.009999424
       104           52.000000         3.995873591      8411.970507524     -2263.112343040     -2253.470161850        40.397786310
       105           52.500000         3.979618815      8377.751534398     -2263.130597667     -2253.470674112        60.736304482
       106           53.000000         3.948983274      8313.258686464     -2263.152035790     -2253.470759004       131.119808458
       107           53.500000         3.915287168      8242.322846366     -2263.176426637     -2253.470983565       103.958540993
       108           54.000000         3.904689418      8220.012841967     -2263.201967776     -2253.470853188       112.216078617
       109           54.500000         3.904955506      8220.573000092     -2263.228443771     -2253.471102431        62.685913019
       110           55.000000         3.910620284      8232.498287693     -2263.255974483     -2253.470947918        39.444343301
       111           55.500000         3.882656847      8173.630658970     -2263.284108494     -2253.470331095        40.574895816
       112           56.000000         3.873272041      8153.874099716     -2263.313745654     -2253.470104770        32.497385170
       113           56.500000         3.842589007      8089.281271895     -2263.344924275     -2253.470177166        37.928216524
       114           57.000000         3.819596225      8040.877687587     -2263.377447701     -2253.469743693        37.945341447
       115           57.500000         3.805996013      8012.247005492     -2263.414075439     -2253.470105835        40.291196859
       116           58.000000         3.816662281      8034.701253662     -2263.452876042     -2253.470630395       126.431708552
       117           58.500000         3.815176955      8031.574397233     -2263.492212826     -2253.470823605        71.662497979
       118           59.000000         3.805256824      8010.690892808     -2263.530490216     -2253.470709252        59.415589174
       119           59.500000         3.800652365      8000.997749018     -2263.568835462     -2253.470139356        54.023679525
       120           60.000000         3.795926803      7991.049663776     -2263.609539831     -2253.470412874        42.248481989
       121           60.500000         3.800593049      8000.872879012     -2263.650479208     -2253.470753427       108.290291198
       122           61.000000         3.830116311      8063.024195934     -2263.691189596     -2253.470717772        68.202395083
       123           61.500000         3.834588878      8072.439684590     -2263.726916150     -2253.467510820       120.427547365
       124           62.000000         3.857962664      8121.645344683     -2263.763861696     -2253.467964413        62.583661361
       125           62.500000         3.863207365      8132.686302106     -2263.799322357     -2253.468826507        48.878569571
       126           63.000000         3.871531010      8150.208943245     -2263.830894071     -2253.468622528        42.823203050
       127           63.500000         3.855430563      8116.314856700     -2263.859769976     -2253.468600136        24.037575217
       128           64.000000         3.806800198      8013.939947136     -2263.885650245     -2253.468481059        24.020466829
       129           64.500000         3.785017595      7968.083988947     -2263.908637739     -2253.468400374        24.334768815
       130           65.000000         3.782073893      7961.887013408     -2263.931439523     -2253.468504087        24.452650717
       131           65.500000         3.760152112      7915.738061872     -2263.954534444     -2253.468819578        19.494027155
       132           66.000000         3.739891275      7873.085670921     -2263.975650221     -2253.468820498        22.116442850
       133           66.500000         3.737096480      7867.202166848     -2263.997365692     -2253.469292419        22.592995064
       134           67.000000         3.726475559      7844.843383649     -2264.019048730     -2253.469275412        22.143357249
       135           67.500000         3.710766582      7811.773405425     -2264.041212711     -2253.470039634        18.289053869
       136           68.000000         3.699680956      7788.436340758     -2264.063787633     -2253.469940576        20.610278154
       137           68.500000         3.663332162      7711.916157178     -2264.086351806     -2253.470208809        19.302987030
       138           69.000000         3.640645181      7664.156334657     -2264.105658948     -2253.469655846        21.483814774
       139           69.500000         3.617872213      7616.215494042     -2264.122121024     -2253.470057809        21.641217323
       140           70.000000         3.608954422      7597.442078343     -2264.134750753     -2253.470029127        35.934289202
       141           70.500000         3.571783765      7519.191739494     -2264.142516340     -2253.470165793        22.691243600
       142           71.000000         3.552637954      7478.886660041     -2264.145916293     -2253.469608897       204.394627810
       143           71.500000         3.525074684      7420.861446896     -2264.148124579     -2253.469818939       129.654845567
       144           72.000000         3.470054874      7305.035707985     -2264.147153562     -2253.469823938        88.706311939
       145           72.500000         3.440501944      7242.821932219     -2264.142435051     -2253.469658042        60.410657214
       146           73.000000         3.408496355      7175.444909795     -2264.126141470     -2253.460302117        44.922576465
       147           73.500000         3.346549139      7045.035841043     -2264.118039733     -2253.459951680        43.330938632
       148           74.000000         3.292212470      6930.648223231     -2264.111370451     -2253.460588031        28.676783638
       149           74.500000         3.271178848      6886.368992449     -2264.104700761     -2253.460693181        47.805459244
       150           75.000000         3.215759822      6769.702836086     -2264.096568773     -2253.460665244        60.538244698
       151           75.500000         3.174811281      6683.499429747     -2264.089718355     -2253.460317109        49.481175046
       152           76.000000         3.151614645      6634.666697953     -2264.085827833     -2253.460494545        53.661506062
       153           76.500000         3.116898915      6561.584382725     -2264.084727463     -2253.460336518        46.167053718
       154           77.000000         3.093427154      6512.172468377     -2264.085820351     -2253.460469274        31.993491845
       155           77.500000         3.058374385      6438.380630339     -2264.089778674     -2253.460753954        45.799512411
       156           78.000000         3.042515335      6404.994723681     -2264.095314699     -2253.460934619        50.262449907
       157           78.500000         3.009620483      6335.745655975     -2264.099892995     -2253.460704901        25.947734829
       158           79.000000         2.965689693      6243.264123612     -2264.104950388     -2253.460968333        39.466380833
       159           79.500000         2.933439100      6175.371326768     -2264.110372596     -2253.461476035        24.045288172
       160           80.000000         2.903470527      6112.282556022     -2264.112958099     -2253.461319709        19.907084333
       161           80.500000         2.876127315      6054.720601852     -2264.113641332     -2253.461453406        23.984112429
       162           81.000000         2.863645440      6028.444202562     -2264.112727409     -2253.460922898        21.624917483
       163           81.500000         2.820427279      5937.462873452     -2264.113070021     -2253.461082327        22.856660869
       164           82.000000         2.785330866      5863.579156467     -2264.115159209     -2253.460987568        22.603323966
       165           82.500000         2.762018033      5814.501812134     -2264.120071646     -2253.461104618        21.666808685
       166           83.000000         2.740818527      5769.873369670     -2264.125150142     -2253.461102117        22.937757187
       167           83.500000         2.700181283      5684.325292661     -2264.130888464     -2253.460715777        24.003894422
       168           84.000000         2.680412551      5642.708863063     -2264.139105064     -2253.460975618        42.782933768
       169           84.500000         2.652281320      5583.487999960     -2264.148402975     -2253.461073955        25.259385960
       170           85.000000         2.621710360      5519.131105841     -2264.158509209     -2253.461621775        71.906334719
       171           85.500000         2.603969416      5481.783502782     -2264.167779036     -2253.462102411       154.809899403
       172           86.000000         2.583277186      5438.222958755     -2264.175966144     -2253.462183143        76.459749745
       173           86.500000         2.571300105      5413.009235007     -2264.182841381     -2253.461887419       163.537720740
       174           87.000000         2.530337602      5326.776436654     -2264.189295248     -2253.462226064        55.009525809
       175           87.500000         2.502202188      5267.546765696     -2264.193490472     -2253.462253202        41.191190032
       176           88.000000         2.501496534      5266.061249326     -2264.197464629     -2253.461885215        30.051765496
       177           88.500000         2.491975566      5246.018046342     -2264.202965725     -2253.461599317        29.175565761
       178           89.000000         2.479979858      5220.765110392     -2264.209182920     -2253.461626478        27.248206021
       179           89.500000         2.460886018      5180.569439989     -2264.214155599     -2253.461584089        28.297950357
       180           90.000000         2.424722321      5104.438913868     -2264.219220560     -2253.461442073        25.328130897
       181           90.500000         2.428503503      5112.398924759     -2264.227077886     -2253.461621754        20.302600790
       182           91.000000         2.415499204      5085.022737284     -2264.236758714     -2253.461799274        21.885642570
       183           91.500000         2.405666002      5064.322231589     -2264.246388787     -2253.461844205        18.181116018
       184           92.000000         2.378522771      5007.181270006     -2264.255587954     -2253.461666654        17.820334569
       185           92.500000         2.374505689      4998.724652565     -2264.267486736     -2253.462305046        17.578498917
       186           93.000000         2.377829414      5005.721640296     -2264.279132044     -2253.462226674        24.840540923
       187           93.500000         2.333859728      4913.158226709     -2264.289735073     -2253.462283386        20.353689743
       188           94.000000         2.313381104      4870.047356942     -2264.300939973     -2253.462397808        30.120566998
       189           94.500000         2.289355169      4819.468815284     -2264.311031882     -2253.462333542        34.268549947
       190           95.000000         2.277235293      4793.954485895     -2264.319021802     -2253.462139429        28.094264999
       191           95.500000         2.267648271      4773.772228873     -2264.326317167     -2253.462229690        24.140871709
       192           96.000000         2.259393002      4756.393530584     -2264.331687604     -2253.461842211        26.717527930
       193           96.500000         2.248729782      4733.945701007     -2264.335231697     -2253.461732639        26.523503263
       194           97.000000         2.218109879      4669.485773507     -2264.336984296     -2253.461877167        47.206384005
       195           97.500000         2.185072275      4599.936188899     -2264.336922110     -2253.461638771        26.242315812
       196           98.000000         2.165247800      4558.202410281     -2264.337007892     -2253.462184695       159.099461708
       197           98.500000         2.163020721      4553.514043045     -2264.336823870     -2253.462219443        88.482517106
       198           99.000000         2.150785189      4527.756239524     -2264.336669774     -2253.461988121       172.475967094
       199           99.500000         2.111993800      4446.093990736     -2264.337383215     -2253.461967052        84.364318959
       200          100.000000         2.094781584      4409.859446854     -2264.340565429     -2253.462543721        50.655108744
       201          100.500000         2.066044621      4349.363418577     -2264.343879962     -2253.462597474        52.399638310
       202          101.000000         2.042551229      4299.905968213     -2264.347131286     -2253.462621575        19.292072874
       203          101.500000         2.019892315      4252.205229574     -2264.350836371     -2253.462307181        26.564507097
       204          102.000000         2.002167784      4214.892180268     -2264.357398987     -2253.462914043        23.296464825
       205          102.500000         1.999196785      4208.637739461     -2264.364329478     -2253.463042782        25.713323563
       206          103.000000         1.986523727      4181.958870531     -2264.370612570     -2253.462932579        26.050095191
       207          103.500000         1.987492854      4183.999042175     -2264.376832757     -2253.463070686        20.794749850
       208          104.000000         1.980145254      4168.531136147     -2264.384058028     -2253.463057630        24.697943226
       209          104.500000         1.975997644      4159.799735954     -2264.391575666     -2253.463045576        20.353551557
       210          105.000000         1.963185664      4132.828411198     -2264.399908916     -2253.463271915        25.004193770
       211          105.500000         1.950535455      4106.197642941     -2264.406584380     -2253.462928071        24.122500001
       212          106.000000         1.917898356      4037.491187202     -2264.414160050     -2253.462675097        19.944897845
       213          106.500000         1.934761878      4072.991672147     -2264.423305713     -2253.463026911        21.095267851
       214          107.000000         1.926077718      4054.710087302     -2264.431923238     -2253.462999240        21.817694407
       215          107.500000         1.893104887      3985.296860641     -2264.440611324     -2253.462866627        16.697374521
       216          108.000000         1.885500073      3969.287478216     -2264.450091364     -2253.462933769        17.314695016
       217          108.500000         1.896017786      3991.428992402     -2264.460639445     -2253.462533058        21.531324508
       218          109.000000         1.899389189      3998.526349680     -2264.472208571     -2253.462469365        21.458955502
       219          109.500000         1.893963922      3987.105271529     -2264.483323700     -2253.462630777        21.210051760
       220          110.000000         1.894750854      3988.761890965     -2264.492828216     -2253.462599266        20.046489982
       221          110.500000         1.895971853      3991.332295949     -2264.500055252     -2253.462517694        18.392668240
       222          111.000000         1.884177665      3966.503592684     -2264.506322007     -2253.462241070        18.749447439
       223          111.500000         1.891751797      3982.448383979     -2264.514198462     -2253.462430832        20.372610880
       224          112.000000         1.871079251      3938.929278649     -2264.521829235     -2253.462533511        20.255412677
       225          112.500000         1.857883492      3911.150037379     -2264.528692925     -2253.462593009        18.863376621
       226          113.000000         1.846589898      3887.375165064     -2264.534062229     -2253.462577248        17.299880113
       227          113.500000         1.841353916      3876.352563584     -2264.538427001     -2253.462447749        17.131289076